# vtk DataFile Version 4.0
X:\PhiPsi Work\FEM\FEM  - results from increment 0001
ASCII
DATASET UNSTRUCTURED_GRID

POINTS 861 double
    0.050000    0.000000    0.000000
   -0.040000    0.030000    0.000000
    0.049610    0.006229    0.000000
    0.048448    0.012361    0.000000
    0.046531    0.018300    0.000000
    0.043888    0.023955    0.000000
    0.040562    0.029236    0.000000
    0.036604    0.034061    0.000000
    0.032075    0.038356    0.000000
    0.027047    0.042053    0.000000
    0.021598    0.045095    0.000000
    0.015811    0.047434    0.000000
    0.009779    0.049034    0.000000
    0.003594    0.049871    0.000000
   -0.002647    0.049930    0.000000
   -0.008847    0.049211    0.000000
   -0.014908    0.047726    0.000000
   -0.020738    0.045497    0.000000
   -0.026244    0.042559    0.000000
   -0.031342    0.038958    0.000000
   -0.035951    0.034749    0.000000
   -0.020000    0.000000    0.000000
   -0.021000    0.001500    0.000000
   -0.022000    0.003000    0.000000
   -0.023000    0.004500    0.000000
   -0.024000    0.006000    0.000000
   -0.025000    0.007500    0.000000
   -0.026000    0.009000    0.000000
   -0.027000    0.010500    0.000000
   -0.028000    0.012000    0.000000
   -0.029000    0.013500    0.000000
   -0.030000    0.015000    0.000000
   -0.031000    0.016500    0.000000
   -0.032000    0.018000    0.000000
   -0.033000    0.019500    0.000000
   -0.034000    0.021000    0.000000
   -0.035000    0.022500    0.000000
   -0.036000    0.024000    0.000000
   -0.037000    0.025500    0.000000
   -0.038000    0.027000    0.000000
   -0.039000    0.028500    0.000000
    0.020000    0.000000    0.000000
    0.019961    0.001250    0.000000
    0.019830    0.002604    0.000000
    0.019583    0.004064    0.000000
    0.019192    0.005628    0.000000
    0.018625    0.007288    0.000000
    0.017845    0.009030    0.000000
    0.016812    0.010833    0.000000
    0.015482    0.012661    0.000000
    0.013810    0.014467    0.000000
    0.011753    0.016182    0.000000
    0.009277    0.017718    0.000000
    0.006359    0.018962    0.000000
    0.003005    0.019773    0.000000
   -0.000744    0.019986    0.000000
   -0.004791    0.019418    0.000000
   -0.008962    0.017880    0.000000
   -0.012993    0.015205    0.000000
   -0.016509    0.011290    0.000000
   -0.019031    0.006151    0.000000
    0.048500    0.000000    0.000000
    0.047000    0.000000    0.000000
    0.045500    0.000000    0.000000
    0.044000    0.000000    0.000000
    0.042500    0.000000    0.000000
    0.041000    0.000000    0.000000
    0.039500    0.000000    0.000000
    0.038000    0.000000    0.000000
    0.036500    0.000000    0.000000
    0.035000    0.000000    0.000000
    0.033500    0.000000    0.000000
    0.032000    0.000000    0.000000
    0.030500    0.000000    0.000000
    0.029000    0.000000    0.000000
    0.027500    0.000000    0.000000
    0.026000    0.000000    0.000000
    0.024500    0.000000    0.000000
    0.023000    0.000000    0.000000
    0.021500    0.000000    0.000000
    0.048129    0.005891    0.000000
    0.046648    0.005563    0.000000
    0.045167    0.005243    0.000000
    0.043687    0.004934    0.000000
    0.042207    0.004634    0.000000
    0.040727    0.004343    0.000000
    0.039245    0.004061    0.000000
    0.037763    0.003789    0.000000
    0.036281    0.003526    0.000000
    0.034799    0.003272    0.000000
    0.033316    0.003028    0.000000
    0.031833    0.002793    0.000000
    0.030350    0.002567    0.000000
    0.028867    0.002351    0.000000
    0.027383    0.002144    0.000000
    0.025899    0.001946    0.000000
    0.024415    0.001758    0.000000
    0.022931    0.001579    0.000000
    0.021446    0.001410    0.000000
    0.047043    0.011702    0.000000
    0.045638    0.011062    0.000000
    0.044232    0.010441    0.000000
    0.042822    0.009837    0.000000
    0.041409    0.009251    0.000000
    0.039995    0.008683    0.000000
    0.038578    0.008134    0.000000
    0.037158    0.007602    0.000000
    0.035736    0.007088    0.000000
    0.034312    0.006592    0.000000
    0.032886    0.006115    0.000000
    0.031456    0.005655    0.000000
    0.030016    0.005211    0.000000
    0.028572    0.004786    0.000000
    0.027124    0.004378    0.000000
    0.025673    0.003987    0.000000
    0.024218    0.003615    0.000000
    0.022755    0.003260    0.000000
    0.021292    0.002923    0.000000
    0.045255    0.017348    0.000000
    0.043975    0.016422    0.000000
    0.042689    0.015523    0.000000
    0.041397    0.014649    0.000000
    0.040100    0.013801    0.000000
    0.038798    0.012979    0.000000
    0.037490    0.012184    0.000000
    0.036171    0.011412    0.000000
    0.034842    0.010664    0.000000
    0.033505    0.009942    0.000000
    0.032160    0.009245    0.000000
    0.030802    0.008571    0.000000
    0.029421    0.007919    0.000000
    0.028037    0.007293    0.000000
    0.026636    0.006689    0.000000
    0.025232    0.006112    0.000000
    0.023825    0.005561    0.000000
    0.022414    0.005036    0.000000
    0.021000    0.004537    0.000000
    0.042786    0.022743    0.000000
    0.041675    0.021566    0.000000
    0.040555    0.020423    0.000000
    0.039422    0.019310    0.000000
    0.038276    0.018229    0.000000
    0.037118    0.017180    0.000000
    0.035948    0.016163    0.000000
    0.034767    0.015178    0.000000
    0.033573    0.014225    0.000000
    0.032324    0.013285    0.000000
    0.031057    0.012374    0.000000
    0.029783    0.011497    0.000000
    0.028502    0.010653    0.000000
    0.027215    0.009843    0.000000
    0.025917    0.009065    0.000000
    0.024592    0.008313    0.000000
    0.023256    0.007593    0.000000
    0.021911    0.006905    0.000000
    0.020554    0.006250    0.000000
    0.039669    0.027806    0.000000
    0.038761    0.026416    0.000000
    0.037836    0.025066    0.000000
    0.036897    0.023754    0.000000
    0.035939    0.022479    0.000000
    0.034956    0.021236    0.000000
    0.033954    0.020029    0.000000
    0.032912    0.018847    0.000000
    0.031824    0.017685    0.000000
    0.030724    0.016565    0.000000
    0.029600    0.015476    0.000000
    0.028457    0.014422    0.000000
    0.027299    0.013406    0.000000
    0.026126    0.012429    0.000000
    0.024940    0.011491    0.000000
    0.023706    0.010575    0.000000
    0.022448    0.009693    0.000000
    0.021182    0.008851    0.000000
    0.019908    0.008049    0.000000
    0.035947    0.032460    0.000000
    0.035267    0.030902    0.000000
    0.034564    0.029386    0.000000
    0.033837    0.027913    0.000000
    0.033087    0.026482    0.000000
    0.032308    0.025089    0.000000
    0.031473    0.023710    0.000000
    0.030578    0.022346    0.000000
    0.029665    0.021027    0.000000
    0.028733    0.019752    0.000000
    0.027780    0.018519    0.000000
    0.026786    0.017313    0.000000
    0.025770    0.016148    0.000000
    0.024710    0.015013    0.000000
    0.023627    0.013919    0.000000
    0.022519    0.012863    0.000000
    0.021375    0.011838    0.000000
    0.020215    0.010858    0.000000
    0.019038    0.009922    0.000000
    0.031670    0.036632    0.000000
    0.031234    0.034952    0.000000
    0.030767    0.033316    0.000000
    0.030268    0.031725    0.000000
    0.029738    0.030178    0.000000
    0.029173    0.028671    0.000000
    0.028504    0.027134    0.000000
    0.027808    0.025644    0.000000
    0.027087    0.024201    0.000000
    0.026339    0.022805    0.000000
    0.025566    0.021456    0.000000
    0.024736    0.020124    0.000000
    0.023842    0.018809    0.000000
    0.022927    0.017544    0.000000
    0.021992    0.016329    0.000000
    0.021026    0.015154    0.000000
    0.020010    0.014005    0.000000
    0.018968    0.012901    0.000000
    0.017897    0.011841    0.000000
    0.026899    0.040253    0.000000
    0.026711    0.038498    0.000000
    0.026485    0.036787    0.000000
    0.026220    0.035122    0.000000
    0.025915    0.033501    0.000000
    0.025539    0.031884    0.000000
    0.025086    0.030257    0.000000
    0.024600    0.028678    0.000000
    0.024079    0.027148    0.000000
    0.023525    0.025665    0.000000
    0.022936    0.024229    0.000000
    0.022245    0.022765    0.000000
    0.021525    0.021352    0.000000
    0.020777    0.019990    0.000000
    0.020001    0.018679    0.000000
    0.019184    0.017405    0.000000
    0.018300    0.016145    0.000000
    0.017383    0.014930    0.000000
    0.016443    0.013768    0.000000
    0.021700    0.043264    0.000000
    0.021757    0.041478    0.000000
    0.021767    0.039736    0.000000
    0.021731    0.038038    0.000000
    0.021649    0.036385    0.000000
    0.021470    0.034690    0.000000
    0.021235    0.033013    0.000000
    0.020958    0.031383    0.000000
    0.020640    0.029801    0.000000
    0.020280    0.028266    0.000000
    0.019848    0.026735    0.000000
    0.019345    0.025203    0.000000
    0.018805    0.023721    0.000000
    0.018231    0.022290    0.000000
    0.017620    0.020910    0.000000
    0.016947    0.019548    0.000000
    0.016208    0.018196    0.000000
    0.015438    0.016899    0.000000
    0.014639    0.015656    0.000000
    0.016150    0.045614    0.000000
    0.016437    0.043838    0.000000
    0.016670    0.042104    0.000000
    0.016850    0.040414    0.000000
    0.016976    0.038760    0.000000
    0.016999    0.037024    0.000000
    0.016973    0.035332    0.000000
    0.016899    0.033687    0.000000
    0.016777    0.032088    0.000000
    0.016607    0.030535    0.000000
    0.016340    0.028931    0.000000
    0.016024    0.027361    0.000000
    0.015665    0.025840    0.000000
    0.015264    0.024369    0.000000
    0.014820    0.022947    0.000000
[...]
CELL_DATA       800

SCALARS Material_ID int
LOOKUP_TABLE default
       1
       1
       1
       1
       1
       1
       1
       1
       1
       1
       1
       1
       1
       1
       1
       1
       1
       1
       1
       1
       1
       1
       1
       1
       1
       1
       1
       1
       1
       1
       1
       1
       1
       1
       1
       1
       1
       1
       1
       1
       1
       1
       1
       1
       1
       1
       1
       1
       1
       1
       1
       1
       1
       1
       1
       1
       1
       1
       1
       1
       1
       1
       1
       1
       1
       1
       1
       1
       1
       1
       1
       1
       1
       1
       1
       1
       1
       1
       1
       1
       1
       1
       1
       1
       1
       1
       1
       1
       1
       1
       1
       1
       1
       1
       1
       1
       1
       1
       1
       1
       1
       1
       1
       1
       1
       1
       1
       1
       1
       1
       1
       1
       1
       1
       1
       1
       1
       1
       1
       1
       1
       1
       1
       1
       1
       1
       1
       1
       1
       1
       1
       1
       1
       1
       1
       1
       1
       1
       1
       1
       1
       1
       1
       1
       1
       1
       1
       1
       1
       1
       1
       1
       1
       1
       1
       1
       1
       1
       1
       1
       1
       1
       1
       1
       1
       1
       1
       1
       1
       1
       1
       1
       1
       1
       1
       1
       1
       1
       1
       1
       1
       1
       1
       1
       1
       1
       1
       1
       1
       1
       1
       1
       1
       1
       1
       1
       1
       1
       1
       1
       1
       1
       1
       1
       1
       1
       1
       1
       1
       1
       1
       1
       1
       1
       1
       1
       1
       1
       1
       1
       1
       1
       1
       1
       1
       1
       1
       1
       1
       1
       1
       1
       1
       1
       1
       1
       1
       1
       1
       1
       1
       1
       1
       1
       1
       1
       1
       1
       1
       1
       1
       1
       1
       1
       1
       1
       1
       1
       1
       1
       1
       1
       1
       1
       1
       1
       1
       1
       1
       1
       1
       1
       1
       1
       1
       1
       1
       1
       1
       1
       1
       1
       1
       1
       1
       1
       1
       1
       1
       1
       1
       1
       1
       1
       1
       1
       1
       1
       1
       1
       1
       1
       1
       1
       1
       1
       1
       1
       1
       1
       1
       1
       1
       1
       1
       1
       1
       1
       1
       1
       1
       1
       1
       1
       1
       1
       1
       1
       1
       1
       1
       1
       1
       1
       1
       1
       1
       1
       1
       1
       1
       1
       1
       1
       1
       1
       1
       1
       1
       1
       1
       1
       1
       1
       1
       1
       1
       1
       1
       1
       1
       1
       1
       1
       1
       1
       1
       1
       1
       1
       1
       1
       1
       1
       1
       1
       1
       1
       1
       1
       1
       1
       1
       1
       1
       1
       1
       1
       1
       1
       1
       1
       1
       1
       1
       1
       1
       1
       1
       1
       1
       1
       1
       1
       1
       1
       1
       1
       1
       1
       1
       1
       1
       1
       1
       1
       1
       1
       1
       1
       1
       1
       1
       1
       1
       1
       1
       1
       1
       1
       1
       1
       1
       1
       1
       1
       1
       1
       1
       1
       1
       1
       1
       1
       1
       1
       1
       1
       1
       1
       1
       1
       1
       1
       1
       1
       1
       1
       1
       1
       1
       1
       1
       1
       1
       1
       1
       1
       1
       1
       1
       1
       1
       1
       1
       1
       1
       1
       1
       1
       1
       1
       1
       1
       1
       1
       1
       1
       1
       1
       1
       1
       1
       1
       1
       1
       1
       1
       1
       1
       1
       1
       1
       1
       1
       1
       1
       1
       1
       1
       1
       1
       1
       1
       1
       1
       1
       1
       1
       1
       1
       1
       1
       1
       1
       1
       1
       1
       1
       1
       1
       1
       1
       1
       1
       1
       1
       1
       1
       1
       1
       1
       1
       1
       1
       1
       1
       1
       1
       1
       1
       1
       1
       1
       1
       1
       1
       1
       1
       1
       1
       1
       1
       1
       1
       1
       1
       1
       1
       1
       1
       1
       1
       1
       1
       1
       1
       1
       1
       1
       1
       1
       1
       1
       1
       1
       1
       1
       1
       1
       1
       1
       1
       1
       1
       1
       1
       1
       1
       1
       1
       1
       1
       1
       1
       1
       1
       1
       1
       1
       1
       1
       1
       1
       1
       1
       1
       1
       1
       1
       1
       1
       1
       1
       1
       1
       1
       1
       1
       1
       1
       1
       1
       1
       1
       1
       1
       1
       1
       1
       1
       1
       1
       1
       1
       1
       1
       1
       1
       1
       1
       1
       1
       1
       1
       1
       1
       1
       1
       1
       1
       1
       1
       1
       1
       1
       1
       1
       1
       1
       1
       1
       1
       1
       1
       1
       1
       1
       1
       1
       1
       1
       1
       1
       1
       1
       1
       1
       1
       1
       1
       1
       1
       1
       1
       1
       1
       1
       1
       1
       1
       1
       1
       1
       1
       1
       1
       1
       1
       1
       1
       1
       1
       1
       1
       1
       1
       1
       1
       1
       1
       1
       1
       1
       1
       1
       1
       1
       1
       1
       1
       1
       1
       1
       1
       1
       1
       1
       1
       1
       1
       1
       1
       1
       1
       1
       1
       1
       1
       1
       1
       1
       1
       1
       1
       1
       1
       1
       1
       1
       1
       1
       1
       1
       1
       1
       1
       1
       1
       1
       1
       1
       1
       1
       1
       1
       1
       1
       1
       1
       1
       1
       1
       1
       1
       1
       1
       1
       1
       1
       1
       1
       1
       1
       1
       1
       1
       1
       1
       1

SCALARS Element_ID int
LOOKUP_TABLE default
       1
       2
       3
       4
       5
       6
       7
       8
       9
      10
      11
      12
      13
      14
      15
      16
      17
      18
      19
      20
      21
      22
      23
      24
      25
      26
      27
      28
      29
      30
      31
      32
      33
      34
      35
      36
      37
      38
      39
      40
      41
      42
      43
      44
      45
      46
      47
      48
      49
      50
      51
      52
      53
      54
      55
      56
      57
      58
      59
      60
      61
      62
      63
      64
      65
      66
      67
      68
      69
      70
      71
      72
      73
      74
      75
      76
      77
      78
      79
      80
      81
      82
      83
      84
      85
      86
      87
      88
      89
      90
      91
      92
      93
      94
      95
      96
      97
      98
      99
     100
     101
     102
     103
     104
     105
     106
     107
     108
     109
     110
     111
     112
     113
     114
     115
     116
     117
     118
     119
     120
     121
     122
     123
     124
     125
     126
     127
     128
     129
     130
     131
     132
     133
     134
     135
     136
     137
     138
     139
     140
     141
     142
     143
     144
     145
     146
     147
     148
     149
     150
     151
     152
     153
     154
     155
     156
     157
     158
     159
     160
     161
     162
     163
     164
     165
     166
     167
     168
     169
     170
     171
     172
     173
     174
     175
     176
     177
     178
     179
     180
     181
     182
     183
     184
     185
     186
     187
     188
     189
     190
     191
     192
     193
     194
     195
     196
     197
     198
     199
     200
     201
     202
     203
     204
     205
     206
     207
     208
     209
     210
     211
     212
     213
     214
     215
     216
     217
     218
     219
     220
     221
     222
     223
     224
     225
     226
     227
     228
     229
     230
     231
     232
     233
     234
     235
     236
     237
     238
     239
     240
     241
     242
     243
     244
     245
     246
     247
     248
     249
     250
     251
     252
     253
     254
     255
     256
     257
     258
     259
     260
     261
     262
     263
     264
     265
     266
     267
     268
     269
     270
     271
     272
     273
     274
     275
     276
     277
     278
     279
     280
     281
     282
     283
     284
     285
     286
     287
     288
     289
     290
     291
     292
     293
     294
     295
     296
     297
     298
     299
     300
     301
     302
     303
     304
     305
     306
     307
     308
     309
     310
     311
     312
     313
     314
     315
     316
     317
     318
     319
     320
     321
     322
     323
     324
     325
     326
     327
     328
     329
     330
     331
     332
     333
     334
     335
     336
     337
     338
     339
     340
     341
     342
     343
     344
     345
     346
     347
     348
     349
     350
     351
     352
     353
     354
     355
     356
     357
     358
     359
     360
     361
     362
     363
     364
     365
     366
     367
     368
     369
     370
     371
     372
     373
     374
     375
     376
     377
     378
     379
     380
     381
     382
     383
     384
     385
     386
     387
     388
     389
     390
     391
     392
     393
     394
     395
     396
     397
     398
     399
     400
     401
     402
     403
     404
     405
     406
     407
     408
     409
     410
     411
     412
     413
     414
     415
     416
     417
     418
     419
     420
     421
     422
     423
     424
     425
     426
     427
     428
     429
     430
     431
     432
     433
     434
     435
     436
     437
     438
     439
     440
     441
     442
     443
     444
     445
     446
     447
     448
     449
     450
     451
     452
     453
     454
     455
     456
     457
     458
     459
     460
     461
     462
     463
     464
     465
     466
     467
     468
     469
     470
     471
     472
     473
     474
     475
     476
     477
     478
     479
     480
     481
     482
     483
     484
     485
     486
     487
     488
     489
     490
     491
     492
     493
     494
     495
     496
     497
     498
     499
     500
     501
     502
     503
     504
     505
     506
     507
     508
     509
     510
     511
     512
     513
     514
     515
     516
     517
     518
     519
     520
     521
     522
     523
     524
     525
     526
     527
     528
     529
     530
     531
     532
     533
     534
     535
     536
     537
     538
     539
     540
     541
     542
     543
     544
     545
     546
     547
     548
     549
     550
     551
     552
     553
     554
     555
     556
     557
     558
     559
     560
     561
     562
     563
     564
     565
     566
     567
     568
     569
     570
     571
     572
     573
     574
     575
     576
     577
     578
     579
     580
     581
     582
     583
     584
     585
     586
     587
     588
     589
     590
     591
     592
     593
     594
     595
     596
     597
     598
     599
     600
     601
     602
     603
     604
     605
     606
     607
     608
     609
     610
     611
     612
     613
     614
     615
     616
     617
     618
     619
     620
     621
     622
     623
     624
     625
     626
     627
     628
     629
     630
     631
     632
     633
     634
     635
     636
     637
     638
     639
     640
     641
     642
     643
     644
     645
     646
     647
     648
     649
     650
     651
     652
     653
     654
     655
     656
     657
     658
     659
     660
     661
     662
     663
     664
     665
     666
     667
     668
     669
     670
     671
     672
     673
     674
     675
     676
     677
     678
     679
     680
     681
     682
     683
     684
     685
     686
     687
     688
     689
     690
     691
     692
     693
     694
     695
     696
     697
     698
     699
     700
     701
     702
     703
     704
     705
     706
     707
     708
     709
     710
     711
     712
     713
     714
     715
     716
     717
     718
     719
     720
     721
     722
     723
     724
     725
     726
     727
     728
     729
     730
     731
     732
     733
     734
     735
     736
     737
     738
     739
     740
     741
     742
     743
     744
     745
     746
     747
     748
     749
     750
     751
     752
     753
     754
     755
     756
     757
     758
     759
     760
     761
     762
     763
     764
     765
     766
     767
     768
     769
     770
     771
     772
     773
     774
     775
     776
     777
     778
     779
     780
     781
     782
     783
     784
     785
     786
     787
     788
     789
     790
     791
     792
     793
     794
     795
     796
     797
     798
     799
     800

POINT_DATA       861

VECTORS Displacement double
  0.000000000000E+00  0.000000000000E+00  0.000000000000E+00
  0.309792344217E-04  0.200022243102E-03  0.000000000000E+00
  0.306508276247E-05 -0.422207813393E-05  0.000000000000E+00
  0.661986220995E-05 -0.714963121533E-05  0.000000000000E+00
  0.116443200093E-04 -0.937367347085E-05  0.000000000000E+00
  0.181700145801E-04 -0.103665261266E-04  0.000000000000E+00
  0.259776862462E-04 -0.974530658974E-05  0.000000000000E+00
  0.347292854805E-04 -0.718664920552E-05  0.000000000000E+00
  0.440084114000E-04 -0.246253768389E-05  0.000000000000E+00
  0.533547239550E-04  0.455736716968E-05  0.000000000000E+00
  0.622893936137E-04  0.139038684246E-04  0.000000000000E+00
  0.703368344741E-04  0.255114195164E-04  0.000000000000E+00
  0.770430351675E-04  0.392233757113E-04  0.000000000000E+00
  0.819920781047E-04  0.547995895091E-04  0.000000000000E+00
  0.848201004577E-04  0.719271359140E-04  0.000000000000E+00
  0.852266594053E-04  0.902304437532E-04  0.000000000000E+00
  0.829857608208E-04  0.109283645539E-03  0.000000000000E+00
  0.779536375852E-04  0.128627902637E-03  0.000000000000E+00
  0.700814362743E-04  0.147780062459E-03  0.000000000000E+00
  0.594146697726E-04  0.166276955812E-03  0.000000000000E+00
  0.461692007356E-04  0.183585366556E-03  0.000000000000E+00
 -0.819531693801E-04  0.126293911173E-03  0.000000000000E+00
 -0.761512594334E-04  0.130121209434E-03  0.000000000000E+00
 -0.703529720994E-04  0.133920104998E-03  0.000000000000E+00
 -0.645635650098E-04  0.137679964634E-03  0.000000000000E+00
 -0.587924556250E-04  0.141396976360E-03  0.000000000000E+00
 -0.530480635155E-04  0.145073131558E-03  0.000000000000E+00
 -0.473356942723E-04  0.148714245180E-03  0.000000000000E+00
 -0.416572811645E-04  0.152328077756E-03  0.000000000000E+00
 -0.360118057891E-04  0.155922933166E-03  0.000000000000E+00
 -0.303960845402E-04  0.159506785698E-03  0.000000000000E+00
 -0.248054720642E-04  0.163086795492E-03  0.000000000000E+00
 -0.192346209341E-04  0.166669273784E-03  0.000000000000E+00
 -0.136773187290E-04  0.170259621050E-03  0.000000000000E+00
 -0.812730356927E-05  0.173862467329E-03  0.000000000000E+00
 -0.257828262646E-05  0.177481931196E-03  0.000000000000E+00
  0.297583962734E-05  0.181122133745E-03  0.000000000000E+00
  0.854111639754E-05  0.184787904624E-03  0.000000000000E+00
  0.141232417474E-04  0.188486306906E-03  0.000000000000E+00
  0.197268151367E-04  0.192230387918E-03  0.000000000000E+00
  0.253523517544E-04  0.196049425477E-03  0.000000000000E+00
  0.000000000000E+00  0.000000000000E+00  0.000000000000E+00
  0.378385543786E-06  0.147219400388E-05  0.000000000000E+00
  0.406790894535E-06  0.308724000462E-05  0.000000000000E+00
  0.476348976766E-06  0.494464029246E-05  0.000000000000E+00
  0.655806031612E-06  0.708118961053E-05  0.000000000000E+00
  0.989944891412E-06  0.953816722912E-05  0.000000000000E+00
  0.149672468805E-05  0.123790409181E-04  0.000000000000E+00
  0.217165131408E-05  0.156923690035E-04  0.000000000000E+00
  0.298328699686E-05  0.195948326631E-04  0.000000000000E+00
  0.386384629890E-05  0.242317980603E-04  0.000000000000E+00
  0.469277859626E-05  0.297722656985E-04  0.000000000000E+00
  0.527643465898E-05  0.363984387756E-04  0.000000000000E+00
  0.532369505063E-05  0.442843940282E-04  0.000000000000E+00
  0.442076184501E-05  0.535602263002E-04  0.000000000000E+00
  0.201085076038E-05  0.642564295429E-04  0.000000000000E+00
 -0.261074139464E-05  0.762273391516E-04  0.000000000000E+00
 -0.102659107608E-04  0.890584732180E-04  0.000000000000E+00
 -0.217769694666E-04  0.101973273242E-03  0.000000000000E+00
 -0.377070084828E-04  0.113745895338E-03  0.000000000000E+00
 -0.580304704783E-04  0.122629941214E-03  0.000000000000E+00
  0.000000000000E+00  0.000000000000E+00  0.000000000000E+00
  0.000000000000E+00  0.000000000000E+00  0.000000000000E+00
  0.000000000000E+00  0.000000000000E+00  0.000000000000E+00
  0.000000000000E+00  0.000000000000E+00  0.000000000000E+00
  0.000000000000E+00  0.000000000000E+00  0.000000000000E+00
  0.000000000000E+00  0.000000000000E+00  0.000000000000E+00
  0.000000000000E+00  0.000000000000E+00  0.000000000000E+00
  0.000000000000E+00  0.000000000000E+00  0.000000000000E+00
  0.000000000000E+00  0.000000000000E+00  0.000000000000E+00
  0.000000000000E+00  0.000000000000E+00  0.000000000000E+00
  0.000000000000E+00  0.000000000000E+00  0.000000000000E+00
  0.000000000000E+00  0.000000000000E+00  0.000000000000E+00
  0.000000000000E+00  0.000000000000E+00  0.000000000000E+00
  0.000000000000E+00  0.000000000000E+00  0.000000000000E+00
  0.000000000000E+00  0.000000000000E+00  0.000000000000E+00
  0.000000000000E+00  0.000000000000E+00  0.000000000000E+00
  0.000000000000E+00  0.000000000000E+00  0.000000000000E+00
  0.000000000000E+00  0.000000000000E+00  0.000000000000E+00
  0.000000000000E+00  0.000000000000E+00  0.000000000000E+00
  0.257161186851E-05 -0.344983442221E-05  0.000000000000E+00
  0.215286400006E-05 -0.286495139222E-05  0.000000000000E+00
  0.179062021692E-05 -0.238330635621E-05  0.000000000000E+00
  0.147262946555E-05 -0.196611610207E-05  0.000000000000E+00
  0.119055522198E-05 -0.159414987431E-05  0.000000000000E+00
  0.938520890700E-06 -0.125694093812E-05  0.000000000000E+00
  0.712467322535E-06 -0.948392739274E-06  0.000000000000E+00
  0.509815188221E-06 -0.664965483615E-06  0.000000000000E+00
  0.328742703866E-06 -0.404125341053E-06  0.000000000000E+00